LIGGGHTS (Version LIGGGHTS-PUBLIC 3.8.0, compiled 2026-02-17-00:00:31 by fiji, git commit unknown)
#DOE1
atom_style	granular
atom_modify	map array
boundary	f p f
newton		off
processors   	2 2 2
communicate	single vel yes
echo            both
#modify_timing	on
units		si
log		log.liggghts append
region		reg block -0.15 0.15 0 0.4 -0.15 0.15  units box
create_box	2 reg
Created orthogonal box = (-0.15 0 -0.15) to (0.15 0.4 0.15)
  2 by 2 by 2 MPI processor grid
neighbor	0.005 bin
neigh_modify	delay 0

shell		mkdir post
shell           mkdir restart

#Material properties required for new pair styles

fix 		m4 all property/global youngsModulus peratomtype 5e6 5e6
fix 		m5 all property/global poissonsRatio peratomtype 0.25 0.25
fix 		COR all property/global coefficientRestitution peratomtypepair 2 0.4 0.4 0.4 0.4 #ok
fix 		COF all property/global coefficientFriction peratomtypepair 2 0.5 0.5 0.5 0.5 #ok
fix		CRF all property/global coefficientRollingFriction peratomtypepair 2 0.25 0.25 0.25 0.25  #ok
#fix             m6 all property/global cohesionEnergyDensity peratomtypepair 2 5e4 5e4 5e4 5e4

#New pair style

pair_style  gran model hertz tangential history rolling_friction cdt limitForce on
pair_coeff	* *

timestep    1e-5
fix         GRAVITY all gravity 9.81 vector 0 -1 0

#granular walls

#fix             inface all mesh/surface/planar file mesh/infaceBulk.stl type 2
#fix 		ywalls1 all wall/gran model hertz tangential history rolling_friction cdt primitive type 2 yplane 0
fix 		xwalls1 all wall/gran model hertz tangential history rolling_friction cdt primitive type 2 xplane -0.15
fix 		xwalls2 all wall/gran model hertz tangential history rolling_friction cdt primitive type 2 xplane 0.15
fix 		zwalls1 all wall/gran model hertz tangential history rolling_friction cdt primitive type 2 zplane -0.15
fix 		zwalls2 all wall/gran model hertz tangential history rolling_friction cdt primitive type 2 zplane 0.15


#distributions for insertion
fix		pts1 all particletemplate/sphere 1295377 atom_type 1 density constant 2000 radius constant 0.0025
fix		pts2 all particletemplate/sphere 32452867 atom_type 2 density constant 2000 radius constant 0.005
fix		pdd1 all particledistribution/discrete 15485863 2 pts1 0 pts2 1

#apply nve integration to all particles that are inserted as single particles
fix		integrator all nve/sphere

#region for insertion

region		insregion block -0.15 0.15 0.25 0.4 -0.15 0.15  units box
fix             ins all insert/pack seed 123457 distributiontemplate pdd1 insert_every once overlapcheck yes                 vel constant 0 -0.001 0 particles_in_region 400 region insregion ntry_mc 10000


fix             MCG_ all mcg

#output settings, include total thermal energy
fix		ts all check/timestep/gran 1000 0.3 0.3
thermo_style	custom step atoms f_ts[1] f_ts[2] cpu
thermo		1000
thermo_modify	lost ignore norm no

#insert the first particles so that dump is not empty
#run			1
dump		dmp all custom/vtk 1000 post/hopper_*.vtk id type type x y z ix iy iz vx vy vz fx fy fz omegax omegay omegaz radius density

run             2000000 upto
Setting up run at Tue Feb 17 00:37:36 2026

INFO: Particle insertion ins: inserting every 0 steps
Memory usage per processor = 4.34165 Mbytes
    Step    Atoms          ts[1]          ts[2]            CPU 
       0        0              0              0              0 
INFO: Particle insertion ins: inserted 400 particle templates (mass 4.188790e-01) at step 1
 - a total of 400 particle templates (mass 4.188790e-01) inserted so far.
    1000      407    0.047845348    0.014296609    0.012702483 
    2000      428    0.050459848    0.015798164    0.021135011 
    3000      484    0.045488434    0.015162353    0.033046333 
    4000      512    0.045488434    0.015596632    0.041660694 
    5000      582    0.050459848    0.017903904     0.05218824 
    6000      680    0.050459848    0.018361613    0.064082477 
    7000      778    0.050459848    0.018778189    0.075983846 
    8000      925    0.050459848    0.019245832    0.091654372 
    9000     1107    0.050459848    0.019594148      0.1102588 
   10000     1275    0.050459848    0.020031974     0.12951997 
   11000     1436    0.050459848    0.020409364      0.1530399 
   12000     1660    0.050459848    0.020686356     0.17957877 
   13000     1891    0.050459848    0.020949492     0.20947792 
   14000     2115    0.050459848    0.021132023       0.239736 
   15000     2304    0.050459848    0.022119979     0.27053766 
   16000     2493    0.050459848    0.022480681      0.3022968 
   17000     2535    0.050459848    0.023052134     0.33550754 
   18000     2241    0.036936609    0.017823912     0.36590228 
   19000     1863    0.036936609    0.017352567      0.3932632 
   20000     1478    0.036936609    0.017210139     0.41904046 
   21000     1044    0.036936609     0.01745598     0.43762289 
   22000      589    0.036936609    0.018639713     0.45175776 
   23000      414    0.036936609    0.017545951     0.46009434 
   24000      414    0.036936609    0.017652715      0.4674427 
   25000      414    0.036936609    0.017757082     0.47858612 
   26000      414    0.036936609    0.017859162     0.48556425 
   27000      414    0.036936609    0.017959061     0.49245518 
   28000      512    0.050459848    0.024784671     0.50513341 
   29000      708    0.050459848    0.024913259     0.51916277 
   30000      995    0.050459848    0.025039337     0.53935461 
   31000     1429    0.050459848    0.025880215     0.56486421 
   32000     1758    0.050459848    0.026155458     0.59664827 
   33000     2080    0.050459848    0.026185592     0.63138033 
   34000     1954    0.050459848    0.026217533     0.66412868 
   35000     1492    0.050459848     0.02629976     0.69178898 
   36000      939    0.050459848    0.026400806     0.71178164 
   37000      652    0.050459848    0.026500406     0.72599971 
   38000      568    0.038000626    0.020161749     0.73717308 
   39000      589    0.050459848    0.026807435     0.74949276 
   40000      631    0.050459848    0.026232846     0.76307528 
   41000      855    0.050459848    0.026244758     0.78199906 
   42000     1114    0.050459848    0.026348212     0.80403514 
   43000     1534    0.050459848     0.02636609     0.83316598 
   44000     1807    0.050459848    0.026468101     0.86597158 
   45000     1569    0.050459848    0.026544792     0.89697187 
   46000     1135    0.050459848    0.026739646     0.92282246 
   47000      792    0.050459848    0.026835057     0.94105736 
   48000      694    0.050459848     0.02662844     0.95438187 
   49000      673    0.050459848    0.026726233     0.96835246 
   50000      897    0.050459848    0.026822629     0.98748041 
   51000     1191    0.050459848    0.027062364      1.0110515 
   52000     1464    0.050459848    0.027879677      1.0416947 
   53000     1527    0.050459848    0.027961488      1.0733646 
   54000     1303    0.050459848     0.02749323      1.1006784 
   55000      995    0.050459848    0.028012868      1.1222996 
   56000      799    0.047845348    0.026637464      1.1384319 
   57000      813    0.050459848    0.028172381      1.1534863 
   58000     1072    0.050459848    0.028250817      1.1763273 
   59000     1254    0.050459848    0.028328395      1.2017883 
   60000     1380    0.050459848    0.028516292      1.2305012 
   61000     1331    0.050459848    0.028171428      1.2569474 
   62000     1086    0.050459848    0.028246499      1.2806506 
   63000      876    0.047845348     0.02685347      1.2981568 
   64000      848    0.050459848    0.028218098      1.3157092 
   65000     1107    0.050459848    0.028421935      1.3371236 
   66000     1233    0.050459848    0.028796427      1.3600873 
   67000     1261    0.050459848    0.029046163      1.3847727 
   68000     1226    0.050459848     0.02893965       1.410862 
   69000     1016    0.050459848    0.029010211      1.4330218 
   70000      883    0.050459848    0.028960021      1.4513543 
   71000     1058    0.050459848    0.028854536      1.4706766 
   72000     1247    0.050459848    0.028976263      1.4946675 
   73000     1212    0.050459848    0.028886892      1.5188425 
   74000     1121    0.050459848    0.028957959      1.5414375 
   75000     1128    0.050459848    0.029256572      1.5640239 
   76000     1016    0.050459848    0.029323274      1.5851522 
   77000     1121    0.050459848    0.029389395      1.6072658 
   78000     1191    0.050459848    0.029572984      1.6306784 
   79000     1128    0.050459848    0.029058317      1.6560181 
   80000     1023    0.050459848    0.029127739       1.684371 
   81000     1191    0.050459848    0.029199692      1.7184951 
   82000     1030    0.050459848    0.029366419      1.7501503 
   83000     1226    0.050459848    0.029376555      1.7847097 
   84000     1093    0.050459848    0.029838562      1.8180184 
   85000     1051    0.050459848     0.02988548      1.8551405 
   86000      995    0.050459848    0.029947395      1.8868713 
   87000     1142    0.050459848    0.030110293      1.9194511 
   88000     1226    0.050459848    0.030033506       1.953785 
   89000     1072    0.050459848    0.030146126      1.9859949 
   90000     1086    0.050459848    0.030206098      2.0206977 
   91000     1044    0.050459848    0.030062786      2.0590747 
   92000     1177    0.050459848    0.030415567       2.093236 
   93000     1093    0.050459848    0.031088753      2.1271424 
   94000     1107    0.050459848     0.03065731       2.161431 
   95000     1100    0.050459848     0.03071339      2.1996505 
   96000     1170    0.050459848    0.030851445      2.2389874 
   97000     1170    0.050459848    0.030814103      2.2736639 
   98000      995    0.050459848    0.030869052      2.3057186 
   99000     1086    0.050459848    0.031004591      2.3415172 
  100000     1163    0.050459848    0.030640552      2.3810238 
  101000     1205    0.050459848    0.030726548      2.4184674 
  102000     1030    0.050459848     0.03118122       2.451066 
  103000     1009    0.050459848     0.03123366      2.4816161 
  104000     1191    0.050459848    0.031361669      2.5240341 
  105000     1240    0.050459848    0.030835246      2.6661204 
  106000     1016    0.050459848    0.030985535      2.7053857 
  107000     1065    0.050459848    0.031039295      2.7351863 
  108000     1065    0.050459848    0.031170296      2.7671368 
  109000     1310    0.050459848    0.031248808      2.8088825 
  110000     1114    0.050459848    0.031243532      2.8484818 
  111000      932    0.050459848    0.031244196      2.8781121 
  112000     1037    0.050459848    0.031459267      2.9105502 
  113000     1289    0.050459848    0.031509833      2.9523782 
  114000     1198    0.050459848    0.031339671      2.9940729 
  115000      967    0.050459848    0.031708908      3.0247534 
  116000     1044    0.050459848    0.031442074      3.0593514 
  117000     1282    0.050459848      0.0314928      3.0986576 
  118000     1065    0.050459848     0.03161666      3.1340853 
  119000      988    0.050459848    0.031508747      3.1662087 
  120000     1135    0.050459848    0.031558432       3.200473 
  121000     1268    0.050459848     0.03165673      3.2393451 
  122000     1065    0.050459848     0.03162245        3.27308 
  123000     1037    0.050459848    0.031743925      3.3042895 
  124000     1128    0.050459848    0.031624105      3.3403063 
  125000     1198    0.050459848    0.031728211      3.3754988 
  126000     1037    0.050459848    0.031698951       3.405831 
  127000     1149    0.050459848    0.031798124      3.4379934 
  128000     1163    0.050459848    0.031839445      3.4764496 
  129000     1142    0.050459848    0.031918044      3.5096422 
  130000     1023    0.050459848    0.032040987      3.5402348 
  131000     1142    0.050459848    0.032059516      3.5770576 
  132000     1184    0.050459848    0.032205828      3.6158617 
  133000     1037    0.050459848    0.032011719       3.648463 
  134000     1072    0.050459848    0.032510187      3.6816517 
  135000     1121    0.050459848    0.032608997      3.7204882 
  136000     1135    0.050459848    0.032598685      3.7575369 
  137000     1065    0.050459848    0.033220589      3.7910985 
  138000     1163    0.050459848    0.033261256      3.8310519 
  139000     1114    0.050459848    0.032635558      3.8677253 
  140000     1037    0.050459848     0.03274724      3.9007044 
  141000     1149    0.050459848    0.032568418      3.9355543 
  142000     1149    0.050459848    0.032893973      3.9760979 
  143000     1009    0.050459848    0.032935623       4.008765 
  144000     1149    0.050459848     0.03304565      4.0430857 
  145000     1261    0.050459848    0.032734489      4.0816062 
  146000     1086    0.050459848    0.032777675      4.1186199 
  147000     1142    0.050459848    0.033070852      4.1529584 
  148000     1205    0.050459848    0.032703208      4.1896956 
  149000     1093    0.050459848    0.032885264      4.2257843 
  150000     1065    0.050459848    0.032927664      4.2606912 
  151000     1142    0.050459848    0.033226175      4.2975929 
  152000     1114    0.050459848    0.033326987      4.3322921 
  153000     1058    0.050459848    0.033425527      4.3660487 
  154000     1093    0.050459848     0.03353369      4.4031971 
  155000     1121    0.050459848    0.033580263      4.4376038 
  156000     1093    0.050459848    0.033619286       4.471266 
  157000     1142    0.050459848    0.033406878      4.5101544 
  158000     1100    0.050459848     0.03344671      4.5440885 
  159000     1142    0.050459848    0.033433955      4.5931393 
  160000     1191    0.050459848    0.033460957      4.6337054 
  161000      988    0.050459848    0.033608425      4.6664571 
  162000     1149    0.050459848     0.03362525      4.7002366 
  163000     1156    0.050459848    0.033664058      4.7377868 
  164000     1051    0.050459848    0.033758428      4.7708215 
  165000     1128    0.050459848    0.033741132      4.8033474 
  166000     1149    0.050459848    0.033834231      4.8441104 
  167000     1009    0.050459848    0.033863358      4.8768353 
  168000     1205    0.050459848     0.03390108      4.9114517 
  169000     1240    0.050459848    0.033994853      4.9498256 
  170000     1044    0.050459848    0.033976058       4.982893 
  171000     1170    0.050459848    0.033855024      5.0188545 
  172000     1198    0.050459848    0.033801844      5.0560473 
  173000     1002    0.050459848    0.033897222      5.0926711 
  174000     1135    0.050459848    0.033850552      5.1313417 
  175000     1128    0.050459848    0.033853715      5.1706659 
  176000     1065    0.050459848    0.033957321      5.2054573 
  177000     1163    0.050459848    0.034178283      5.2422497 
  178000     1044    0.050459848     0.03421465      5.2797769 
  179000     1177    0.050459848    0.034306082      5.3155451 
  180000     1156    0.050459848    0.033957094      5.3527814 
  181000     1072    0.050459848    0.034047935      5.3884839 
  182000     1219    0.050459848    0.034262007      5.4265202 
  183000     1156    0.050459848    0.034297951      5.4627646 
  184000     1121    0.050459848    0.034187817      5.4971565 
  185000     1128    0.050459848    0.034228896      5.5326765 
  186000     1170    0.050459848    0.034265042      5.5688524 
  187000     1310    0.050459848    0.034365023      5.6070345 
  188000     1037    0.050459848    0.034128099       5.642986 
  189000     1093    0.050459848    0.034165924      5.6777367 
  190000     1163    0.050459848    0.034202341       5.717695 
  191000      981    0.050459848    0.034292423       5.753472 
  192000     1184    0.050459848    0.034258793      5.7901443 
  193000     1191    0.050459848    0.034245458      5.8278088 
  194000     1037    0.050459848    0.034259571       5.863384 
  195000     1170    0.050459848    0.034372498      5.9002162 
  196000     1205    0.050459848     0.03433999      5.9368557 
  197000     1156    0.050459848    0.034429096      5.9726553 
  198000     1037    0.050459848    0.034313874      6.0107997 
  199000     1163    0.050459848    0.034520009      6.0472744 
  200000     1338    0.050459848    0.034554932        6.08711 
  201000     1065    0.050459848    0.034643532      6.1311048 
  202000     1002    0.050459848    0.034624436      6.1663779 
  203000     1219    0.050459848    0.034709762      6.2085753 
  204000     1149    0.050459848    0.034486373      6.2479596 
  205000     1156    0.050459848    0.034716395      6.2839061 
  206000     1135    0.050459848    0.034332138      6.3252917 
  207000     1072    0.050459848      0.0345103      6.3637135 
  208000     1212    0.050459848    0.034544813      6.4035512 
  209000     1114    0.050459848    0.034649788      6.4414337 
  210000     1212    0.050459848    0.034583074      6.4793867 
  211000     1100    0.050459848    0.034551649      6.5176207 
  212000     1149    0.050459848    0.034636633      6.5528158 
  213000     1170    0.050459848     0.03476292      6.5966934 
  214000     1023    0.050459848    0.034796904      6.6317476 
  215000     1380    0.050459848    0.034690077      6.6725066 
  216000     1170    0.050459848    0.034484855      6.7138081 
  217000     1065    0.050459848    0.034531011      6.7460817 
  218000     1338    0.050459848    0.034555295      6.7887483 
  219000     1177    0.050459848    0.034591769      6.8275371 
  220000     1149    0.050459848    0.034602997      6.8620173 
  221000     1198    0.050459848    0.034640948      6.9039733 
  222000      995    0.050459848    0.035068132      6.9451483 
  223000     1212    0.050459848    0.034708205      6.9821045 
  224000     1310    0.050459848    0.034563142       7.023389 
  225000     1058    0.050459848    0.034431399      7.0612439 
  226000     1233    0.050459848    0.034605731      7.0995786 
  227000     1142    0.050459848    0.034640318      7.1454578 
  228000     1163    0.050459848    0.034729546      7.1821346 
  229000     1324    0.050459848    0.034765916      7.2223298 
  230000     1212    0.050459848    0.034831705       7.262046 
  231000     1044    0.050459848    0.034584784      7.2987169 
  232000     1345    0.050459848    0.034667185      7.3410864 
  233000     1072    0.050459848     0.03475668      7.3805884 
  234000     1163    0.050459848    0.034916412      7.4177916 
  235000     1401    0.050459848    0.035399483      7.4631643 
  236000     1107    0.050459848    0.034959488      7.4992623 
  237000     1359    0.050459848    0.034778646      7.5401424 
  238000     1079    0.050459848    0.034812564      7.5833173 
  239000     1100    0.050459848    0.034600539      7.6191975 
  240000     1387    0.050459848    0.034738196      7.6617396 
  241000     1030    0.050459848    0.034711768      7.6991839 
  242000     1219    0.050459848    0.034758331      7.7370052 
  243000     1198    0.050459848    0.034775112      7.7783072 
  244000     1198    0.050459848    0.034817929      7.8176217 
  245000     1233    0.050459848    0.034851127       7.857837 
  246000     1065    0.050459848    0.034954261      7.8963764 
  247000     1198    0.050459848     0.03491576      7.9352297 
  248000     1177    0.050459848    0.035043589       7.974487 
  249000     1177    0.050459848    0.035342913      8.0148216 
  250000     1114    0.050459848    0.035274592      8.0546279 
  251000     1247    0.050459848    0.035169539      8.0959797 
  252000     1268    0.050459848    0.034951544      8.1403226 
  253000     1121    0.050459848    0.034806409      8.1831439 
  254000     1191    0.050459848    0.034888656      8.2267963 
  255000     1086    0.050459848    0.034873906      8.2645184 
  256000     1359    0.050459848    0.034955438      8.3063971 
  257000     1240    0.050459848    0.035080631      8.3479144 
  258000     1254    0.050459848    0.035074296      8.3864831 
  259000     1163    0.050459848    0.035360444      8.4295547 
  260000     1016    0.050459848    0.035432155      8.4695637 
  261000     1331    0.050459848    0.035089371      8.5130346 
  262000     1226    0.050459848    0.034857068      8.5514857 
  263000     1310    0.050459848    0.034863121      8.5914823 
  264000     1247    0.050459848    0.034835088      8.6326221 
  265000     1212    0.050459848    0.035034984      8.6718052 
  266000     1247    0.050459848    0.035118556      8.7155408 
  267000     1051    0.050459848    0.034944914       8.755641 
  268000     1233    0.050459848    0.034900391      8.7994309 
  269000     1142    0.050459848    0.035182302      8.8414851 
  270000     1387    0.050459848    0.035262174      8.8843398 
  271000     1310    0.050459848    0.034997456      8.9280065 
  272000     1156    0.050459848    0.035008537      8.9679976 
  273000     1296    0.050459848    0.034973224      9.0147189 
  274000     1065    0.050459848     0.03505819      9.0550219 
  275000     1387    0.050459848    0.034957318      9.0962972 
  276000     1240    0.050459848    0.035158437      9.1380416 
  277000     1142    0.050459848    0.035248971       9.179773 
  278000     1296    0.050459848    0.035281394      9.2196163 
  279000     1156    0.050459848    0.035374262      9.2584886 
  280000     1219    0.050459848    0.035105631      9.2967294 
  281000     1275    0.050459848    0.035234175      9.3373803 
  282000     1240    0.050459848    0.035039218      9.3770877 
  283000     1247    0.050459848    0.034943283      9.4142136 
  284000     1212    0.050459848    0.035715847      9.4558211 
  285000     1163    0.050459848    0.035144637      9.4933594 
  286000     1401    0.050459848    0.035056417      9.5359519 
  287000     1121    0.050459848    0.035236213      9.5740907 
  288000     1366    0.050459848    0.035268398      9.6173734 
  289000     1177    0.050459848     0.03511226      9.6557504 
  290000     1261    0.050459848    0.035164055      9.6966224 
  291000     1065    0.050459848    0.035257215      9.7365866 
  292000     1282    0.050459848    0.035346164      9.7774199 
  293000     1226    0.050459848    0.035168264       9.817837 
  294000     1240    0.050459848    0.035200696      9.8545397 
  295000     1261    0.050459848    0.035258384      9.8961335 
  296000     1079    0.050459848    0.035058975      9.9352117 
  297000     1422    0.050459848     0.03509181      9.9814083 
  298000     1128    0.050459848     0.03511039      10.024234 
  299000     1338    0.050459848     0.03519043      10.064798 
  300000     1170    0.050459848     0.03532371      10.109894 
  301000     1226    0.050459848    0.035406291      10.148085 
  302000     1282    0.050459848    0.035278868      10.194249 
  303000     1261    0.050459848    0.035356949      10.234684 
  304000     1310    0.050459848    0.035216097      10.274203 
  305000     1212    0.050459848     0.03546533      10.317218 
  306000     1226    0.050459848    0.035496689      10.362001 
  307000     1191    0.050459848    0.035355664      10.404324 
  308000     1268    0.050459848    0.035387416      10.448374 
  309000     1107    0.050459848    0.035281476      10.491275 
  310000     1338    0.050459848    0.035425906      10.534676 
  311000     1184    0.050459848    0.035280618      10.580863 
  312000     1289    0.050459848    0.035384355      10.621712 
  313000     1247    0.050459848    0.035066718      10.670137 
  314000     1254    0.050459848    0.034974208      10.712004 
  315000     1289    0.050459848    0.035184017      10.762311 
  316000     1205    0.050459848    0.035326393      10.808529 
  317000     1331    0.050459848    0.035338477      10.856305 
  318000     1100    0.050459848    0.035173523      10.901866 
  319000     1359    0.050459848    0.035355612      10.945528 
  320000     1366    0.050459848    0.035387356      11.000386 
  321000     1289    0.050459848    0.035009546      11.044932 
  322000     1268    0.050459848    0.035143361      11.093083 
  323000     1072    0.050459848    0.035175782      11.135971 
  324000     1226    0.050459848    0.035090797      11.191029 
  325000     1205    0.050459848    0.035182999      11.234287 
  326000     1317    0.050459848    0.035448815      11.280731 
  327000     1254    0.050459848      0.0353013      11.327799 
  328000     1359    0.050459848     0.03609966      11.387111 
  329000     1331    0.050459848    0.036189353      11.444434 
  330000     1380    0.050459848    0.035084161      11.498918 
  331000     1310    0.050459848    0.035580973      11.553298 
  332000     1296    0.050459848    0.035624986      11.596604 
  333000     1205    0.050459848    0.035567371      11.639455 
  334000     1177    0.050459848     0.03561433      11.679203 
  335000     1177    0.050459848    0.035558069      11.718791 
  336000     1226    0.050459848    0.035658938       11.75735 
  337000     1303    0.050459848    0.035517174      11.798401 
  338000     1261    0.050459848     0.03549981      11.836967 
  339000     1387    0.050459848    0.035364834      11.875789 
  340000     1310    0.050459848    0.035262688      11.914938 
  341000     1254    0.050459848    0.035434419      11.951543 
  342000     1254    0.050459848     0.03551338      11.998872 
  343000     1240    0.050459848    0.035453169      12.044037 
  344000     1338    0.050459848    0.035177611       12.08567 
  345000     1275    0.050459848    0.035204705      12.126905 
  346000     1233    0.050459848    0.035344341      12.164865 
  347000     1373    0.050459848    0.035437437      12.206871 
  348000     1212    0.050459848    0.035522414      12.243963 
  349000     1408    0.050459848    0.035271277      12.287134 
  350000     1100    0.050459848    0.035336534      12.331776 
  351000     1380    0.050459848    0.035350242      12.377427 
  352000     1170    0.050459848    0.035501165      12.417646 
  353000     1247    0.050459848    0.035532414      12.462363 
  354000     1170    0.050459848    0.035563556      12.506111 
  355000     1268    0.050459848    0.035474378      12.550003 
  356000     1261    0.050459848    0.035562005      12.593739 
  357000     1366    0.050459848    0.035542322      12.639238 
  358000     1268    0.050459848    0.035282983      12.680721 
  359000     1268    0.050459848    0.035314959       12.72325 
  360000     1240    0.050459848     0.03558915      12.766596 
  361000     1324    0.050459848     0.03567361      12.807576 
  362000     1373    0.050459848    0.035656148      12.853755 
  363000     1303    0.050459848    0.035794208      12.896005 
  364000     1471    0.050459848    0.035872516      12.943471 
  365000     1156    0.050459848    0.035425849      12.985425 
  366000     1380    0.050459848    0.035470741      13.035369 
  367000     1072    0.050459848    0.035553015      13.077454 
  368000     1366    0.050459848    0.035479215      13.120356 
  369000     1184    0.050459848    0.035523576      13.160505 
  370000     1457    0.050459848    0.035605529      13.201506 
  371000     1163    0.050459848    0.035429638      13.257679 
  372000     1324    0.050459848     0.03542987      13.305438 
  373000     1254    0.050459848    0.035883027       13.35758 
  374000     1394    0.050459848    0.035956829      13.400044 
  375000     1352    0.050459848    0.035746991      13.446074 
  376000     1275    0.050459848    0.035827966      13.492029 
  377000     1156    0.050459848    0.035586594      13.531526 
  378000     1303    0.050459848    0.035580464      13.578027 
  379000     1072    0.050459848     0.03566166      13.617855 
  380000     1394    0.050459848    0.035682799      13.660525 
  381000     1254    0.050459848    0.035450348      13.708021 
  382000     1317    0.050459848    0.035538485      13.750958 
  383000     1275    0.050459848    0.036035661      13.798473 
  384000     1142    0.050459848    0.035777926      13.842586 
  385000     1338    0.050459848    0.035604869      13.887857 
  386000     1114    0.050459848     0.03570386      13.929486 
  387000     1485    0.050459848    0.035646421      13.972075 
  388000     1170    0.050459848    0.035678876      14.014448 
  389000     1352    0.050459848    0.035519391      14.054432 
  390000     1345    0.050459848    0.035624081      14.103073 
  391000     1282    0.050459848    0.035584953      14.147327 
  392000     1436    0.050459848    0.035634985       14.19554 
  393000     1170    0.050459848    0.035729459      14.244959 
  394000     1443    0.050459848    0.035792707      14.292851 
  395000     1219    0.050459848    0.035866521      14.344438 
  396000     1261    0.050459848    0.036134067      14.392896 
  397000     1345    0.050459848    0.035623958       14.44379 
  398000     1261    0.050459848    0.035729195       14.48752 
  399000     1429    0.050459848    0.035627746      14.533804 
  400000     1296    0.050459848    0.035655728      14.577465 
  401000     1324    0.050459848    0.035730933      14.617713 
  402000     1282    0.050459848    0.035652056      14.663216 
  403000     1219    0.050459848     0.03573384      14.699634 
  404000     1478    0.050459848    0.035713387      14.744844 
  405000     1212    0.050459848    0.035787937      14.785844 
  406000     1527    0.050459848    0.035774308       14.83255 
  407000     1191    0.050459848    0.035519401      14.876798 
  408000     1464    0.050459848    0.035630613      14.924387 
  409000     1219    0.050459848    0.035510862      14.970348 
  410000     1373    0.050459848    0.036008033      15.022238 
  411000     1331    0.050459848    0.036080468      15.071997 
  412000     1282    0.050459848    0.035666246       15.11828 
  413000     1345    0.050459848    0.035752664      15.165391 
  414000     1275    0.050459848    0.036075568      15.207774 
  415000     1387    0.050459848    0.036151588      15.251909 
  416000     1338    0.050459848    0.035829421      15.292094 
  417000     1422    0.050459848     0.03578945      15.338971 
  418000     1296    0.050459848    0.035767876       15.38739 
  419000     1401    0.050459848    0.035702837      15.432488 
  420000     1212    0.050459848    0.035785538      15.476207 
  421000     1366    0.050459848    0.035669506       15.52379 
  422000     1233    0.050459848    0.035783671      15.567601 
  423000     1366    0.050459848    0.035526192      15.614225 
  424000     1205    0.050459848    0.035601466      15.658035 
  425000     1401    0.050459848    0.035688856      15.703164 
  426000     1226    0.050459848    0.035764704      15.748013 
  427000     1359    0.050459848     0.03553809      15.790502 
  428000     1296    0.050459848    0.035970945      15.830314 
  429000     1359    0.050459848    0.036044974      15.873116 
  430000     1303    0.050459848      0.0358336      15.915546 
  431000     1352    0.050459848    0.035916438      15.956474 
  432000     1268    0.050459848    0.035997402      16.000699 
  433000     1373    0.050459848    0.035975959      16.040579 
  434000     1289    0.050459848    0.036049333      16.084247 
  435000     1380    0.050459848    0.035991517      16.123375 
  436000     1331    0.050459848    0.035669426      16.167736 
  437000     1296    0.050459848    0.035755592      16.207107 
  438000     1254    0.050459848     0.03581772      16.250066 
  439000     1331    0.050459848    0.035948203      16.290088 
  440000     1366    0.050459848     0.03569904      16.334617 
  441000     1282    0.050459848    0.035668515      16.376766 
  442000     1338    0.050459848    0.035753496      16.426973 
  443000     1338    0.050459848    0.035783879      16.471989 
  444000     1359    0.050459848    0.035655405      16.519027 
  445000     1261    0.050459848    0.035645481      16.563178 
  446000     1394    0.050459848    0.035636795      16.607473 
  447000     1261    0.050459848    0.035816018       16.64872 
  448000     1478    0.050459848    0.036041356      16.692426 
  449000     1212    0.050459848    0.035694428      16.735442 
  450000     1513    0.050459848    0.035780855         16.778 
  451000     1149    0.050459848    0.035754608      16.819942 
  452000     1464    0.050459848    0.035863055      16.863802 
  453000     1170    0.050459848     0.03593938      16.906551 
  454000     1429    0.050459848    0.035651317      16.951823 
  455000     1331    0.050459848    0.035662655      16.991811 
  456000     1359    0.050459848    0.035731922      17.035235 
  457000     1387    0.050459848     0.03582559       17.07964 
  458000     1324    0.050459848     0.03589824       17.12382 
  459000     1373    0.050459848    0.035985563      17.179195 
  460000     1303    0.050459848    0.035957912      17.229549 
  461000     1408    0.050459848    0.036031737      17.274176 
  462000     1282    0.050459848    0.035638001      17.335838 
  463000     1247    0.050459848    0.036069658      17.386514 
  464000     1352    0.050459848    0.035691674      17.449052 
  465000     1226    0.050459848    0.035731934      17.498682 
  466000     1282    0.050459848    0.036036131      17.557034 
  467000     1226    0.050459848    0.036107727      17.606217 
  468000     1408    0.050459848    0.035793823      17.663622 
  469000     1373    0.050459848    0.035856264       17.71625 
  470000     1450    0.050459848    0.035839706      17.774323 
  471000     1282    0.050459848    0.035869804      17.829646 
  472000     1443    0.050459848    0.035734852      17.885815 
  473000     1191    0.050459848    0.035712331      17.942677 
  474000     1520    0.050459848    0.035782228      17.999113 
  475000     1156    0.050459848    0.035856438      18.061573 
  476000     1492    0.050459848    0.035850626         18.114 
  477000     1149    0.050459848    0.035829219      18.177831 
  478000     1394    0.050459848    0.035965616      18.228096 
  479000     1289    0.050459848    0.036119513      18.292488 
  480000     1296    0.050459848    0.036202515       18.34025 
  481000     1429    0.050459848     0.03639393      18.400899 
  482000     1345    0.050459848    0.036232284      18.453681 
  483000     1401    0.050459848    0.036303817      18.511414 
  484000     1429    0.050459848    0.036289862      18.567922 
  485000     1268    0.050459848    0.035912232      18.618033 
  486000     1562    0.050459848     0.03598585      18.679583 
  487000     1170    0.050459848    0.035894614      18.737518 
  488000     1562    0.050459848    0.035856528      18.792206 
  489000     1156    0.050459848    0.035930325      18.843523 
  490000     1583    0.050459848    0.035803485      18.891739 
  491000     1289    0.050459848    0.035955918      18.945931 
  492000     1464    0.050459848    0.036032011      18.987355 
  493000     1345    0.050459848    0.036082988      19.045894 
  494000     1282    0.050459848    0.036067806      19.087631 
  495000     1352    0.050459848    0.035966442      19.141212 
  496000     1212    0.050459848     0.03604264      19.184971 
  497000     1499    0.050459848    0.035928628      19.234053 
  498000     1275    0.050459848    0.036007199      19.279136 
  499000     1422    0.050459848    0.035770121      19.325653 
  500000     1261    0.050459848    0.035773837      19.376026 
  501000     1366    0.050459848    0.035944696      19.418544 
  502000     1401    0.050459848    0.036020801      19.475434 
  503000     1282    0.050459848    0.035992651      19.521238 
  504000     1443    0.050459848    0.036077189       19.57331 
  505000     1282    0.050459848     0.03599282      19.618693 
  506000     1443    0.050459848    0.036057444      19.669435 
  507000     1247    0.050459848    0.036133863      19.713497 
  508000     1436    0.050459848    0.035952286      19.767638 
  509000     1394    0.050459848    0.035901844      19.808785 
  510000     1429    0.050459848     0.03587901      19.853253 
  511000     1380    0.050459848    0.036471114      19.894047 
  512000     1394    0.050459848    0.036541832      19.935875 
  513000     1387    0.050459848     0.03609653      19.975836 
  514000     1282    0.050459848     0.03616865      20.019039 
  515000     1268    0.050459848    0.036501889      20.060677 
  516000     1268    0.050459848    0.035950006       20.10613 
  517000     1275    0.050459848    0.036008968       20.14706 
  518000     1226    0.050459848    0.035987589      20.195022 
  519000     1254    0.050459848      0.0358149      20.234206 
  520000     1324    0.050459848    0.035832822      20.284817 
  521000     1289    0.050459848    0.036301089      20.325677 
  522000     1317    0.050459848    0.035999699      20.373992 
  523000     1296    0.050459848    0.035939778      20.417643 
  524000     1352    0.050459848    0.035755925      20.464375 
  525000     1289    0.050459848    0.035917528      20.507767 
  526000     1387    0.050459848    0.036373085      20.553064 
  527000     1268    0.050459848    0.036449108      20.598718 
  528000     1268    0.050459848    0.036220652      20.644137 
  529000     1282    0.050459848    0.036092581      20.693624 
  530000     1212    0.050459848    0.036002457      20.743477 
  531000     1345    0.050459848    0.035944222      20.798337 
  532000     1226    0.050459848    0.035883847      20.848317 
  533000     1373    0.050459848    0.036167906      20.911345 
  534000     1240    0.050459848     0.03610412      20.964585 
  535000     1450    0.050459848    0.036003804       21.02169 
  536000     1240    0.050459848    0.036096061      21.074019 
  537000     1394    0.050459848    0.036180272      21.126571 
  538000     1198    0.050459848    0.035951863      21.175565 
  539000     1303    0.050459848    0.036039031      21.225547 
  540000     1184    0.050459848    0.035928656      21.274152 
  541000     1331    0.050459848    0.035889781      21.328406 
  542000     1331    0.050459848    0.035965091      21.377967 
  543000     1331    0.050459848    0.035924321      21.430708 
  544000     1366    0.050459848    0.035968468      21.479922 
  545000     1352    0.050459848    0.036026209      21.528815 
  546000     1310    0.050459848    0.036095098      21.576459 
  547000     1296    0.050459848     0.03616871      21.626728 
  548000     1233    0.050459848    0.036016964      21.678424 
  549000     1240    0.050459848    0.035930243      21.726429 
  550000     1317    0.050459848     0.03599305      21.782458 
  551000     1247    0.050459848    0.035968698      21.833452 
  552000     1436    0.050459848    0.035852102      21.887342 
  553000     1289    0.050459848    0.035905222      21.932607 
  554000     1408    0.050459848    0.035985052      21.985438 
  555000     1254    0.050459848    0.036043044      22.031417 
  556000     1352    0.050459848    0.036036151      22.079797 
  557000     1226    0.050459848    0.035991404      22.124946 
  558000     1366    0.050459848    0.036149343      22.168303 
  559000     1156    0.050459848    0.036225667      22.212405 
  560000     1345    0.050459848    0.036183652      22.256531 
  561000     1296    0.050459848    0.036263302      22.301899 
  562000     1359    0.050459848    0.036241468      22.347596 
  563000     1289    0.050459848    0.036312597      22.395672 
  564000     1408    0.050459848    0.036341024      22.444138 
  565000     1317    0.050459848    0.036053631      22.487061 
  566000     1415    0.050459848    0.036134701      22.538385 
  567000     1331    0.050459848    0.036005456      22.579533 
  568000     1499    0.050459848    0.035981289      22.644426 
  569000     1324    0.050459848    0.036053155      22.696859 
  570000     1450    0.050459848    0.035891827      22.766285 
  571000     1226    0.050459848    0.035887123      22.817794 
  572000     1499    0.050459848    0.035815889      22.876122 
  573000     1142    0.050459848      0.0358884      22.923635 
  574000     1450    0.050459848    0.035819572      22.977626 
  575000     1205    0.050459848    0.035909232      23.025833 
  576000     1352    0.050459848    0.035835989      23.074994 
  577000     1247    0.050459848    0.035916626      23.123896 
  578000     1324    0.050459848    0.035880422      23.173932 
  579000     1289    0.050459848    0.035886984      23.228916 
  580000     1212    0.050459848    0.035898868      23.275083 
  581000     1317    0.050459848    0.035860603      23.340519 
  582000     1198    0.050459848    0.035772482      23.384335 
  583000     1366    0.050459848    0.036000749      23.440323 
  584000     1247    0.050459848    0.035990503      23.484207 
  585000     1408    0.050459848    0.036088914      23.534944 
  586000     1338    0.050459848    0.036177802      23.579391 
  587000     1513    0.050459848    0.036126457      23.639794 
  588000     1359    0.050459848    0.036222427      23.693551 
  589000     1534    0.050459848    0.036045229      23.752423 
  590000     1338    0.050459848    0.036125484      23.814302 
  591000     1569    0.050459848    0.035934919       23.86766 
  592000     1324    0.050459848    0.035987959      23.920563 
  593000     1506    0.050459848    0.036092117      23.970375 
  594000     1212    0.050459848    0.036149196      24.023882 
  595000     1352    0.050459848    0.036197478      24.070375 
  596000     1240    0.050459848    0.035959895      24.125063 
  597000     1401    0.050459848    0.035905892       24.16955 
  598000     1198    0.050459848    0.036102777      24.220347 
  599000     1429    0.050459848    0.036175497      24.267522 
  600000     1079    0.050459848    0.035978634      24.322844 
  601000     1408    0.050459848    0.036068107      24.369648 
  602000     1135    0.050459848    0.036085817      24.418633 
  603000     1492    0.050459848     0.03608076      24.466649 
  604000     1121    0.050459848    0.036144126      24.517129 
  605000     1457    0.050459848    0.035847006      24.562842 
  606000     1198    0.050459848    0.035976058      24.615142 
  607000     1513    0.050459848    0.036169809      24.663296 
  608000     1268    0.050459848    0.036089848       24.71628 
  609000     1415    0.050459848    0.036164711      24.764778 
  610000     1317    0.050459848    0.036082516      24.817646 
  611000     1366    0.050459848    0.036548115      24.877437 
  612000     1401    0.050459848    0.036095875      24.927334 
  613000     1352    0.050459848    0.036004317       24.98044 
  614000     1352    0.050459848    0.035920711       25.02768 
  615000     1310    0.050459848    0.035925665      25.078346 
  616000     1429    0.050459848    0.035955448      25.127447 
  617000     1331    0.050459848    0.035991474      25.178105 
  618000     1436    0.050459848     0.03600687      25.225393 
  619000     1303    0.050459848    0.036054656      25.275422 
  620000     1366    0.050459848    0.036015709      25.323311 
  621000     1317    0.050459848    0.036087317      25.375502 
  622000     1380    0.050459848    0.036079408      25.419023 
  623000     1352    0.050459848    0.036025028      25.467041 
  624000     1373    0.050459848    0.036101322      25.517384 
  625000     1303    0.050459848    0.036146261      25.567056 
  626000     1401    0.050459848    0.036154932      25.612753 
  627000     1296    0.050459848    0.036004132      25.659872 
  628000     1380    0.050459848    0.035953187      25.705243 
  629000     1352    0.050459848    0.035919035      25.753064 
  630000     1450    0.050459848    0.035913172      25.801654 
  631000     1401    0.050459848    0.036120153      25.853159 
  632000     1387    0.050459848    0.036123349      25.900467 
  633000     1401    0.050459848     0.03598334      25.950815 
  634000     1317    0.050459848    0.035967228      25.993782 
  635000     1387    0.050459848    0.035974449      26.046606 
  636000     1254    0.050459848    0.035957596       26.08747 
  637000     1366    0.050459848    0.036022011       26.14906 
  638000     1205    0.050459848     0.03600432      26.189774 
  639000     1394    0.050459848    0.036478895      26.241977 
  640000     1247    0.050459848    0.036548773      26.285728 
  641000     1387    0.050459848    0.036567112      26.336766 
  642000     1303    0.050459848    0.036152368      26.382068 
  643000     1373    0.050459848    0.036092047      26.429998 
  644000     1345    0.050459848    0.035984795      26.474658 
  645000     1394    0.050459848    0.036056695      26.524729 
  646000     1338    0.050459848    0.036126043      26.573731 
  647000     1401    0.050459848    0.036115241      26.624564 
  648000     1296    0.050459848    0.036102646      26.671524 
  649000     1422    0.050459848    0.036134966      26.720853 
  650000     1289    0.050459848    0.036216954      26.768362 
  651000     1401    0.050459848    0.035920297      26.814274 
  652000     1359    0.050459848    0.035950353      26.871756 
  653000     1352    0.050459848    0.036128828      26.931015 
  654000     1359    0.050459848    0.036208349      26.992027 
  655000     1310    0.050459848    0.036355555      27.049564 
  656000     1310    0.050459848    0.036425427      27.111177 
  657000     1247    0.050459848    0.036074899      27.163894 
  658000     1289    0.050459848    0.036168716      27.216991 
  659000     1338    0.050459848    0.036126308      27.261283 
  660000     1352    0.050459848     0.03621759      27.310757 
  661000     1464    0.050459848    0.036074847      27.355197 
  662000     1387    0.050459848    0.035990045       27.40158 
  663000     1422    0.050459848    0.036138084      27.444474 
  664000     1408    0.050459848    0.036143824      27.492881 
  665000     1352    0.050459848    0.036018868      27.540742 
  666000     1359    0.050459848    0.036111187      27.589817 
  667000     1303    0.050459848    0.036188047      27.632999 
  668000     1359    0.050459848    0.036216281      27.679561 
  669000     1331    0.050459848     0.03629041      27.722058 
  670000     1331    0.050459848    0.036023602      27.767862 
  671000     1310    0.050459848    0.036115797      27.811195 
  672000     1387    0.050459848    0.036310559       27.85716 
  673000     1345    0.050459848    0.036503461      27.905107 
  674000     1387    0.050459848    0.036571416      27.951437 
  675000     1429    0.050459848    0.036251598      27.997035 
  676000     1401    0.050459848    0.036456559      28.044088 
  677000     1478    0.050459848    0.036538427       28.09042 
  678000     1303    0.050459848      0.0363098      28.140856 
  679000     1527    0.050459848    0.036209527      28.184895 
  680000     1184    0.050459848    0.036124137      28.228232 
  681000     1492    0.050459848    0.036228654      28.272951 
  682000     1149    0.050459848    0.036300933      28.321147 
  683000     1471    0.050459848    0.036286183      28.365252 
  684000     1205    0.050459848    0.036204182      28.414774 
  685000     1422    0.050459848    0.036289024      28.458471 
  686000     1282    0.050459848    0.036358692       28.50515 
  687000     1401    0.050459848    0.036387087      28.547102 
  688000     1359    0.050459848    0.036396919      28.593008 
  689000     1457    0.050459848    0.036259268      28.636613 
  690000     1373    0.050459848    0.036469128      28.682527 
  691000     1359    0.050459848     0.03637146      28.727111 
  692000     1464    0.050459848    0.036253525      28.774909 
  693000     1289    0.050459848    0.036299597      28.818397 
  694000     1436    0.050459848    0.036376546      28.869496 
  695000     1240    0.050459848    0.036051063      28.911843 
  696000     1506    0.050459848    0.036130205      28.965949 
  697000     1184    0.050459848    0.036051076       29.02021 
  698000     1534    0.050459848     0.03612377      29.070868 
  699000     1254    0.050459848    0.036220666      29.109299 
  700000     1436    0.050459848     0.03621166      29.160792 
  701000     1352    0.050459848    0.036288318      29.199619 
  702000     1387    0.050459848     0.03623981       29.24833 
  703000     1359    0.050459848    0.036262957       29.28918 
  704000     1261    0.050459848    0.036254514      29.342047 
  705000     1345    0.050459848    0.036272732      29.385132 
  706000     1149    0.050459848    0.036260265      29.436968 
  707000     1359    0.050459848    0.036094386      29.482089 
  708000     1128    0.050459848    0.036077963      29.528934 
  709000     1443    0.050459848    0.036097513      29.573195 
  710000     1142    0.050459848    0.036180691      29.622084 
  711000     1464    0.050459848    0.036076594      29.668112 
  712000     1219    0.050459848    0.036063909       29.71183 
  713000     1422    0.050459848     0.03613959      29.755276 
  714000     1282    0.050459848     0.03595424      29.800653 
  715000     1261    0.050459848    0.036012322      29.846113 
  716000     1359    0.050459848    0.036053345       29.88951 
  717000     1233    0.050459848    0.036295728      29.935412 
  718000     1527    0.050459848    0.036387225       29.98006 
  719000     1191    0.050459848    0.036209946      30.025833 
  720000     1583    0.050459848    0.036189241      30.072076 
  721000     1226    0.050459848    0.036185805      30.116231 
  722000     1548    0.050459848     0.03614267      30.163712 
  723000     1303    0.050459848    0.036184359      30.209796 
  724000     1590    0.050459848    0.036207528      30.260078 
  725000     1268    0.050459848     0.03614432      30.304225 
  726000     1548    0.050459848    0.036127766      30.353413 
  727000     1261    0.050459848    0.036156895      30.395239 
  728000     1569    0.050459848    0.036228685      30.447203 
  729000     1261    0.050459848     0.03641937      30.492493 
  730000     1513    0.050459848    0.036497673      30.542597 
  731000     1240    0.050459848    0.036190177      30.584833 
  732000     1499    0.050459848    0.036267135      30.634959 
  733000     1282    0.050459848    0.036608679      30.678865 
  734000     1471    0.050459848    0.036193207      30.730187 
  735000     1310    0.050459848    0.036182481      30.771426 
  736000     1506    0.050459848    0.036167894      30.820801 
  737000     1408    0.050459848    0.036196911      30.865303 
  738000     1478    0.050459848    0.036148123      30.914914 
  739000     1387    0.050459848    0.036370087      30.962237 
  740000     1478    0.050459848    0.036368946      31.009839 
  741000     1401    0.050459848    0.036394227      31.061036 
  742000     1499    0.050459848    0.036355093      31.108908 
  743000     1345    0.050459848    0.036445015       31.16249 
  744000     1506    0.050459848    0.036467541      31.207933 
  745000     1310    0.050459848    0.036261921      31.259417 
  746000     1464    0.050459848    0.036298855      31.304649 
  747000     1352    0.050459848    0.036212823      31.358291 
  748000     1457    0.050459848     0.03636693      31.402449 
  749000     1331    0.050459848    0.036451592      31.450648 
  750000     1387    0.050459848    0.036479708       31.49585 
  751000     1401    0.050459848     0.03629632      31.541938 
  752000     1366    0.050459848    0.036143587      31.585541 
  753000     1401    0.050459848    0.036216195      31.630417 
  754000     1352    0.050459848    0.036087629      31.674336 
  755000     1380    0.050459848    0.036315058      31.722148 
  756000     1373    0.050459848     0.03640101      31.769647 
  757000     1352    0.050459848    0.036296208      31.814042 
  758000     1359    0.050459848    0.036389752      31.858252 
  759000     1387    0.050459848    0.036304322      31.902663 
  760000     1296    0.050459848     0.03646671      31.949271 
  761000     1464    0.050459848    0.036536154      31.991791 
  762000     1184    0.050459848    0.036522758      32.037188 
  763000     1590    0.050459848    0.036296606      32.079829 
  764000     1170    0.050459848    0.036053428      32.123572 
  765000     1506    0.050459848    0.036386208      32.168643 
  766000     1149    0.050459848    0.036455962      32.213637 
  767000     1569    0.050459848    0.036376178      32.258178 
  768000     1205    0.050459848    0.036358576      32.308121 
  769000     1520    0.050459848    0.036318269      32.352287 
  770000     1233    0.050459848    0.036395105      32.398819 
  771000     1359    0.050459848    0.036422717      32.439895 
  772000     1310    0.050459848     0.03628552      32.487597 
  773000     1352    0.050459848    0.036287082      32.531649 
  774000     1331    0.050459848     0.03635931      32.578624 
  775000     1317    0.050459848    0.036344232      32.620793 
  776000     1457    0.050459848    0.036052019      32.668285 
  777000     1345    0.050459848    0.036112806      32.711135 
  778000     1450    0.050459848    0.036187779      32.758502 
  779000     1422    0.050459848     0.03609681      32.801483 
  780000     1471    0.050459848    0.036189734      32.846753 
  781000     1401    0.050459848    0.036144477      32.889945 
  782000     1534    0.050459848    0.036253895      32.935375 
  783000     1415    0.050459848    0.036029691      32.985749 
  784000     1401    0.050459848    0.036392582        33.0304 
  785000     1429    0.050459848    0.036475242      33.075199 
  786000     1352    0.050459848    0.036553795      33.120374 
  787000     1506    0.050459848    0.036153832      33.167508 
  788000     1317    0.050459848    0.036328958       33.21076 
  789000     1478    0.050459848    0.036419568      33.256744 
  790000     1275    0.050459848    0.036385861      33.313492 
  791000     1478    0.050459848    0.036393161      33.361984 
  792000     1247    0.050459848    0.036463281      33.403007 
  793000     1429    0.050459848    0.036449715      33.452724 
  794000     1177    0.050459848    0.036402257      33.505167 
  795000     1366    0.050459848     0.03673753      33.551558 
  796000     1219    0.050459848    0.036969599      33.597008 
  797000     1436    0.050459848    0.037042319      33.640429 
  798000     1324    0.050459848    0.036352768      33.685676 
  799000     1506    0.050459848    0.036283547       33.73119 
  800000     1380    0.050459848    0.036353667      33.776377 
  801000     1422    0.050459848    0.036365079      33.824292 
  802000     1401    0.050459848    0.036435617      33.866842 
  803000     1373    0.050459848     0.03642175      33.913368 
  804000     1457    0.050459848    0.036588132      33.956175 
  805000     1366    0.050459848    0.036220696      34.000482 
  806000     1464    0.050459848    0.036292028      34.044684 
  807000     1401    0.050459848    0.036365772       34.08897 
  808000     1415    0.050459848    0.036177751      34.135597 
  809000     1513    0.050459848    0.036459564      34.181018 
  810000     1394    0.050459848    0.036219024      34.228236 
  811000     1541    0.050459848    0.036294903      34.275673 
  812000     1359    0.050459848    0.036444625       34.32253 
  813000     1660    0.050459848    0.036416238      34.370386 
  814000     1282    0.050459848     0.03668865      34.418404 
  815000     1597    0.050459848    0.036653644      34.471685 
  816000     1254    0.050459848    0.036725586      34.519317 
  817000     1541    0.050459848     0.03670823       34.56876 
  818000     1331    0.050459848    0.036352437      34.612646 
  819000     1443    0.050459848    0.036521256       34.66312 
  820000     1457    0.050459848    0.036601365      34.707102 
  821000     1387    0.050459848    0.036419555      34.755203 
  822000     1485    0.050459848    0.036580191      34.800574 
  823000     1310    0.050459848    0.036517497      34.845741 
  824000     1478    0.050459848    0.036417431      34.889824 
  825000     1261    0.050459848     0.03636554      34.934935 
  826000     1450    0.050459848    0.036512379      34.979492 
  827000     1331    0.050459848    0.036559959      35.026972 
  828000     1408    0.050459848    0.036380881      35.077679 
  829000     1373    0.050459848    0.036397993      35.127325 
  830000     1359    0.050459848    0.036499084      35.179517 
  831000     1506    0.050459848    0.036601999      35.227994 
  832000     1317    0.050459848    0.036436065      35.280722 
  833000     1464    0.050459848    0.036634363      35.330562 
  834000     1275    0.050459848    0.036322597      35.379855 
  835000     1576    0.050459848    0.036690277      35.428015 
  836000     1394    0.050459848    0.036759753      35.473808 
  837000     1555    0.050459848     0.03674504      35.521165 
  838000     1415    0.050459848    0.036669317      35.566357 
  839000     1443    0.050459848    0.036433548      35.613708 
  840000     1485    0.050459848    0.036413524      35.659822 
  841000     1429    0.050459848    0.036413726      35.714637 
  842000     1506    0.050459848    0.036596459      35.761154 
  843000     1331    0.050459848    0.036609271      35.807439 
  844000     1485    0.050459848    0.036465573      35.855863 
  845000     1366    0.050459848    0.036571387      35.899956 
  846000     1408    0.050459848    0.036561692      35.948801 
  847000     1401    0.050459848    0.036662659      35.993209 
  848000     1359    0.050459848    0.036699172       36.04192 
  849000     1576    0.050459848    0.036556169      36.088381 
  850000     1310    0.050459848    0.036367708      36.135074 
  851000     1562    0.050459848    0.036437236      36.182023 
  852000     1282    0.050459848    0.036424362      36.225461 
  853000     1534    0.050459848    0.036645227      36.274549 
  854000     1415    0.050459848    0.036737071      36.318317 
  855000     1450    0.050459848    0.036722226      36.376458 
  856000     1485    0.050459848    0.036470247      36.424826 
  857000     1331    0.050459848    0.036413347      36.475073 
  858000     1450    0.050459848    0.036490891      36.524928 
  859000     1352    0.050459848    0.036407732      36.572142 
  860000     1485    0.050459848    0.036499379      36.623333 
  861000     1359    0.050459848     0.03654173      36.669945 
  862000     1464    0.050459848    0.036485507      36.727345 
  863000     1541    0.050459848    0.036559956      36.775802 
  864000     1464    0.050459848    0.036588483      36.827989 
  865000     1513    0.050459848    0.036673577      36.875879 
  866000     1387    0.050459848     0.03652775       36.92601 
  867000     1471    0.050459848     0.03653743       36.97087 
  868000     1464    0.050459848    0.036610794      37.018256 
  869000     1429    0.050459848    0.036664123      37.063177 
  870000     1527    0.050459848    0.036737729      37.112973 
  871000     1471    0.050459848    0.036626191      37.158271 
  872000     1527    0.050459848    0.036461781      37.210304 
  873000     1450    0.050459848    0.036692251      37.254868 
  874000     1436    0.050459848    0.036778353      37.304507 
  875000     1422    0.050459848    0.036454761      37.351996 
  876000     1366    0.050459848    0.036596475      37.402248 
  877000     1408    0.050459848    0.036666745      37.453522 
  878000     1499    0.050459848    0.036516341      37.504644 
  879000     1471    0.050459848     0.03644325      37.552065 
  880000     1464    0.050459848    0.036513156      37.600364 
  881000     1471    0.050459848      0.0363642      37.648278 
  882000     1513    0.050459848    0.036611033      37.697591 
  883000     1485    0.050459848    0.036580264      37.745479 
  884000     1513    0.050459848    0.036647636      37.793104 
  885000     1471    0.050459848    0.036593449      37.840376 
  886000     1492    0.050459848     0.03654233      37.887418 
  887000     1471    0.050459848    0.036588399      37.933688 
  888000     1450    0.050459848    0.036497532      37.979535 
  889000     1415    0.050459848    0.036546596      38.024792 
  890000     1471    0.050459848    0.036629994      38.069916 
  891000     1450    0.050459848     0.03664891      38.122255 
  892000     1436    0.050459848    0.036390658      38.168131 
  893000     1429    0.050459848    0.036480008      38.215594 
  894000     1478    0.050459848    0.036716557      38.263951 
  895000     1331    0.050459848    0.036470283      38.311708 
  896000     1562    0.050459848    0.036555359       38.36399 
  897000     1261    0.050459848    0.036522533      38.412199 
  898000     1639    0.050459848    0.036601053      38.465824 
  899000     1310    0.050459848     0.03664512      38.512758 
  900000     1534    0.050459848    0.036684393      38.566475 
  901000     1296    0.050459848    0.036620547      38.610543 
  902000     1485    0.050459848    0.036892358      38.662282 
  903000     1422    0.050459848    0.036541313       38.70844 
  904000     1310    0.050459848    0.036807856       38.75724 
  905000     1534    0.050459848    0.036879803      38.808471 
  906000     1289    0.050459848    0.036592725      38.856969 
  907000     1534    0.050459848    0.036555201      38.907499 
  908000     1373    0.050459848    0.036623752      38.953598 
  909000     1534    0.050459848      0.0365618      39.001875 
  910000     1443    0.050459848    0.036630379      39.049513 
  911000     1471    0.050459848    0.036625557      39.098582 
  912000     1485    0.050459848    0.036743043       39.14813 
  913000     1464    0.050459848    0.036814644      39.198596 
  914000     1464    0.050459848    0.036611648       39.24849 
  915000     1541    0.050459848    0.036702713      39.303189 
  916000     1541    0.050459848    0.036711035      39.353055 
  917000     1387    0.050459848    0.037008857      39.404313 
  918000     1513    0.050459848    0.037080525      39.453775 
  919000     1387    0.050459848    0.037061258      39.504965 
  920000     1513    0.050459848     0.03686728       39.55761 
  921000     1310    0.050459848     0.03676369      39.610935 
  922000     1520    0.050459848    0.036571844      39.661108 
  923000     1373    0.050459848    0.036556452      39.709826 
  924000     1450    0.050459848    0.036662389      39.761094 
  925000     1478    0.050459848    0.036737827      39.807749 
  926000     1415    0.050459848    0.036589255      39.860804 
  927000     1450    0.050459848    0.036955173      39.906671 
  928000     1429    0.050459848    0.036700719      39.959068 
  929000     1359    0.050459848     0.03683156      40.004003 
  930000     1394    0.050459848    0.036901931      40.055368 
  931000     1422    0.050459848    0.036885379       40.10731 
  932000     1534    0.050459848    0.036704782      40.157527 
  933000     1387    0.050459848    0.036774685      40.207225 
  934000     1562    0.050459848    0.036707276      40.257815 
  935000     1513    0.050459848    0.036778505      40.305217 
  936000     1443    0.050459848    0.036752471      40.354922 
  937000     1499    0.050459848    0.036833408      40.406505 
  938000     1345    0.050459848    0.036773437      40.455845 
  939000     1499    0.050459848    0.037104923       40.56279 
  940000     1478    0.050459848    0.037169745      40.613825 
  941000     1478    0.050459848    0.036932195      40.664058 
  942000     1492    0.050459848    0.036999265      40.715211 
  943000     1499    0.050459848     0.03698762      40.763946 
  944000     1387    0.050459848    0.036765957      40.818778 
  945000     1583    0.050459848     0.03683806      40.869392 
  946000     1338    0.050459848    0.036820223      40.923866 
  947000     1569    0.050459848    0.036635504      40.975671 
  948000     1373    0.050459848    0.036661785      41.026098 
  949000     1555    0.050459848    0.036713721       41.07713 
  950000     1443    0.050459848    0.036787002      41.126819 
  951000     1499    0.050459848    0.036768252      41.178519 
  952000     1429    0.050459848     0.03679566      41.229878 
  953000     1520    0.050459848    0.036879212      41.282237 
  954000     1415    0.050459848    0.036849791      41.330679 
  955000     1478    0.050459848    0.036676112      41.382474 
  956000     1534    0.050459848    0.037114606      41.430533 
  957000     1324    0.050459848    0.036537064      41.487742 
  958000     1555    0.050459848    0.036614329      41.537797 
  959000     1317    0.050459848    0.036662483      41.587459 
  960000     1513    0.050459848     0.03666669      41.638644 
  961000     1408    0.050459848     0.03660916      41.694022 
  962000     1506    0.050459848    0.036593389      41.748206 
  963000     1541    0.050459848    0.036685239      41.797039 
  964000     1492    0.050459848    0.036650528      41.848431 
  965000     1506    0.050459848    0.036864365      41.897319 
  966000     1590    0.050459848    0.036931111      41.945621 
  967000     1387    0.050459848    0.036758822      41.995733 
  968000     1534    0.050459848    0.036820658       42.04178 
  969000     1373    0.050459848    0.037089371      42.091503 
  970000     1569    0.050459848    0.037701318      42.141627 
  971000     1415    0.050459848    0.036778609      42.193123 
  972000     1555    0.050459848    0.036759174      42.244309 
  973000     1471    0.050459848    0.036647608      42.295586 
  974000     1422    0.050459848    0.036815544      42.346105 
  975000     1387    0.050459848    0.036743213      42.395059 
  976000     1492    0.050459848    0.036662919      42.447235 
  977000     1464    0.050459848    0.036825041      42.497375 
  978000     1429    0.050459848     0.03677242      42.546169 
  979000     1485    0.050459848    0.036922435      42.594574 
  980000     1597    0.050459848    0.037003336       42.64041 
  981000     1492    0.050459848    0.036642419      42.686909 
  982000     1625    0.050459848    0.036812027      42.735392 
  983000     1415    0.050459848    0.036760773      42.780491 
  984000     1527    0.050459848    0.037205264      42.829117 
  985000     1429    0.050459848    0.037277358       42.88479 
  986000     1590    0.050459848    0.036809571      42.934725 
  987000     1324    0.050459848    0.036808704      42.983272 
  988000     1527    0.050459848    0.036885698      43.034794 
  989000     1380    0.050459848    0.036862715      43.082444 
  990000     1443    0.050459848    0.036753869       43.14016 
  991000     1436    0.050459848    0.036801608       43.18997 
  992000     1415    0.050459848    0.036788028      43.245392 
  993000     1646    0.050459848    0.036823802      43.297378 
  994000     1492    0.050459848     0.03688127      43.349435 
  995000     1618    0.050459848    0.036667124      43.398708 
  996000     1471    0.050459848    0.036692208      43.447942 
  997000     1548    0.050459848    0.036871712      43.498662 
  998000     1380    0.050459848     0.03672005      43.544808 
  999000     1569    0.050459848    0.037189007      43.593752 
 1000000     1499    0.050459848    0.037263171      43.642331 
 1001000     1548    0.050459848    0.036704638      43.696653 
 1002000     1443    0.050459848    0.037127363      43.746039 
 1003000     1464    0.050459848    0.037150543      43.802333 
 1004000     1562    0.050459848    0.037219207      43.856059 
 1005000     1324    0.050459848    0.036707354      43.915568 
 1006000     1611    0.050459848    0.036775728      43.969638 
 1007000     1380    0.050459848    0.036681268      44.023973 
 1008000     1478    0.050459848     0.03675379      44.079468 
 1009000     1576    0.050459848    0.036631712      44.132028 
 1010000     1436    0.050459848    0.036907397        44.1857 
 1011000     1674    0.050459848    0.036789603      44.237695 
 1012000     1352    0.050459848    0.036733538       44.28694 
 1013000     1576    0.050459848    0.037073125      44.337457 
 1014000     1478    0.050459848    0.037151634      44.384552 
 1015000     1310    0.050459848    0.037088544       44.43523 
 1016000     1653    0.050459848    0.036746714      44.482465 
 1017000     1205    0.050459848    0.036848718      44.532836 
 1018000     1723    0.050459848    0.036875652      44.583131 
 1019000     1282    0.050459848    0.036780262      44.626747 
 1020000     1590    0.050459848     0.03670753      44.676074 
 1021000     1436    0.050459848    0.036776213      44.719164 
 1022000     1422    0.050459848    0.036842741      44.771075 
 1023000     1681    0.050459848    0.036914915      44.817336 
 1024000     1450    0.050459848     0.03689654      44.867563 
 1025000     1569    0.050459848    0.036803097      44.914246 
 1026000     1394    0.050459848    0.036782688      44.962853 
 1027000     1611    0.050459848    0.036952249      45.014257 
 1028000     1373    0.050459848    0.037021825      45.061808 
 1029000     1660    0.050459848    0.037056663      45.113002 
 1030000     1345    0.050459848    0.037110399      45.161163 
 1031000     1674    0.050459848     0.03680508      45.214493 
 1032000     1415    0.050459848    0.036722382      45.263994 
 1033000     1576    0.050459848    0.036985307      45.315756 
 1034000     1485    0.050459848    0.037055858      45.363586 
 1035000     1394    0.050459848    0.036984077      45.415035 
 1036000     1576    0.050459848    0.037005182      45.462092 
 1037000     1373    0.050459848    0.036817872      45.511784 
 1038000     1625    0.050459848    0.036892905      45.562298 
 1039000     1429    0.050459848     0.03708591      45.609782 
 1040000     1632    0.050459848     0.03681774      45.661535 
 1041000     1506    0.050459848    0.036691351      45.709434 
 1042000     1471    0.050459848    0.036842464      45.759243 
 1043000     1457    0.050459848    0.036910453      45.806899 
 1044000     1513    0.050459848    0.036735733      45.856411 
 1045000     1499    0.050459848    0.036802285      45.905367 
 1046000     1583    0.050459848    0.036860621      45.955908 
 1047000     1492    0.050459848    0.036888709      46.003728 
 1048000     1562    0.050459848    0.036886038      46.056161 
 1049000     1464    0.050459848    0.036981533      46.102282 
 1050000     1569    0.050459848    0.036775357      46.151388 
 1051000     1555    0.050459848    0.036968217      46.202091 
 1052000     1429    0.050459848    0.037037772      46.249182 
 1053000     1415    0.050459848    0.037335474      46.301864 
 1054000     1499    0.050459848    0.037398535      46.351364 
 1055000     1583    0.050459848    0.037070905      46.403596 
 1056000     1450    0.050459848    0.037138078      46.454154 
 1057000     1576    0.050459848    0.037102445       46.50355 
 1058000     1443    0.050459848    0.036856494       46.55427 
 1059000     1513    0.050459848    0.036857756      46.603049 
 1060000     1492    0.050459848    0.036709936      46.651083 
 1061000     1583    0.050459848    0.037020799      46.700381 
 1062000     1499    0.050459848    0.037094175      46.747979 
 1063000     1548    0.050459848    0.037134573      46.798327 
 1064000     1548    0.050459848    0.036908824      46.845382 
 1065000     1506    0.050459848    0.036979476      46.896625 
 1066000     1422    0.050459848    0.036962248      46.941397 
 1067000     1464    0.050459848    0.036962468      46.991636 
 1068000     1534    0.050459848    0.036989066      47.036866 
 1069000     1513    0.050459848    0.036995305      47.086921 
 1070000     1681    0.050459848      0.0370632      47.139495 
 1071000     1401    0.050459848    0.036943781      47.186378 
 1072000     1569    0.050459848    0.037286841      47.240127 
 1073000     1450    0.050459848     0.03735113      47.287967 
 1074000     1499    0.050459848    0.037175096      47.341787 
 1075000     1597    0.050459848    0.036870939      47.391327 
 1076000     1408    0.050459848    0.036884658      47.441497 
 1077000     1597    0.050459848    0.036870147      47.490467 
 1078000     1471    0.050459848    0.036936584      47.538716 
 1079000     1618    0.050459848    0.036962346      47.588685 
 1080000     1492    0.050459848    0.037028309      47.636423 
 1081000     1471    0.050459848    0.037047627      47.688961 
 1082000     1576    0.050459848    0.036681953      47.737352 
 1083000     1394    0.050459848    0.036869783      47.786961 
 1084000     1639    0.050459848    0.036946682      47.837162 
 1085000     1387    0.050459848    0.036793869      47.887213 
 1086000     1534    0.050459848    0.036839161      47.940409 
 1087000     1576    0.050459848    0.036935105      47.991289 
 1088000     1485    0.050459848    0.037253514      48.046264 
 1089000     1611    0.050459848    0.036962177      48.099963 
 1090000     1464    0.050459848    0.036977266      48.149081 
 1091000     1583    0.050459848    0.036892992      48.199985 
 1092000     1534    0.050459848     0.03696291      48.256162 
 1093000     1478    0.050459848    0.037060372      48.309608 
 1094000     1513    0.050459848    0.037132073      48.362387 
 1095000     1513    0.050459848     0.03715295      48.415321 
 1096000     1597    0.050459848    0.037105689       48.47486 
 1097000     1443    0.050459848    0.037063108      48.532347 
 1098000     1632    0.050459848    0.037025704      48.594007 
 1099000     1401    0.050459848    0.037201156      48.649297 
 1100000     1667    0.050459848    0.037274592      48.706175 
 1101000     1506    0.050459848    0.037291393      48.757331 
 1102000     1534    0.050459848    0.037101755      48.808949 
 1103000     1583    0.050459848     0.03716636      48.857776 
 1104000     1478    0.050459848    0.037031732      48.912768 
 1105000     1702    0.050459848     0.03702817      48.965602 
 1106000     1394    0.050459848    0.037095279      49.015389 
 1107000     1730    0.050459848    0.037024776      49.070622 
 1108000     1464    0.050459848     0.03709294       49.11781 
 1109000     1408    0.050459848    0.037148844      49.171178 
 1110000     1667    0.050459848    0.037140226       49.22239 
 1111000     1415    0.050459848    0.037087166      49.278006 
 1112000     1604    0.050459848    0.037169102      49.328313 
 1113000     1429    0.050459848    0.037139559      49.382588 
 1114000     1485    0.050459848    0.036997996      49.434845 
 1115000     1569    0.050459848    0.036996522      49.483569 
 1116000     1380    0.050459848      0.0369763      49.532837 
 1117000     1688    0.050459848    0.037049989      49.585276 
 1118000     1590    0.050459848    0.037116309      49.634115 
 1119000     1506    0.050459848    0.037209199      49.686647 
 1120000     1646    0.050459848    0.037142819      49.738424 
 1121000     1422    0.050459848    0.036860352      49.794869 
 1122000     1625    0.050459848     0.03689787      49.853313 
 1123000     1604    0.050459848    0.037089092      49.907191 
 1124000     1394    0.050459848    0.037166635      49.966777 
 1125000     1646    0.050459848    0.036971949      50.021283 
 1126000     1471    0.050459848    0.036860592      50.072024 
 1127000     1597    0.050459848    0.036848569      50.124609 
 1128000     1618    0.050459848    0.037006021      50.175296 
 1129000     1380    0.050459848    0.037024861      50.227679 
 1130000     1646    0.050459848    0.036932981      50.282194 
 1131000     1450    0.050459848    0.036828344      50.341625 
 1132000     1450    0.050459848    0.036946412      50.407468 
 1133000     1737    0.050459848    0.036985928      50.468809 
 1134000     1443    0.050459848    0.037073653      50.522762 
 1135000     1702    0.050459848    0.036920748       50.58728 
 1136000     1478    0.050459848    0.037207283      50.637866 
 1137000     1464    0.050459848    0.036957322      50.708932 
 1138000     1688    0.050459848    0.037027371      50.770193 
 1139000     1450    0.050459848    0.036950629      50.832631 
 1140000     1541    0.050459848    0.037255976      50.894203 
 1141000     1520    0.050459848    0.037325424      50.954678 
 1142000     1555    0.050459848    0.036960042      51.011034 
 1143000     1562    0.050459848    0.036938656      51.064765 
 1144000     1527    0.050459848    0.037049043      51.115506 
 1145000     1471    0.050459848    0.037062802      51.168274 
 1146000     1562    0.050459848    0.037114696      51.218766 
 1147000     1478    0.050459848    0.036797585      51.268795 
 1148000     1478    0.050459848    0.037067277       51.31911 
 1149000     1583    0.050459848    0.037135362      51.369397 
 1150000     1541    0.050459848     0.03715854      51.432458 
 1151000     1604    0.050459848    0.037370787      51.490281 
 1152000     1499    0.050459848    0.036913346      51.559695 
 1153000     1555    0.050459848    0.036836247      51.624614 
 1154000     1527    0.050459848     0.03714837       51.68576 
 1155000     1471    0.050459848    0.036939594      51.746397 
 1156000     1569    0.050459848    0.037067987       51.79925 
 1157000     1499    0.050459848    0.037142149      51.865283 
 1158000     1576    0.050459848    0.037109624      51.932956 
 1159000     1436    0.050459848    0.037012047      51.997211 
 1160000     1611    0.050459848    0.037307529      52.055827 
 1161000     1492    0.050459848    0.037377666      52.109467 
 1162000     1436    0.050459848    0.037022487      52.163311 
 1163000     1702    0.050459848    0.037011205      52.215032 
 1164000     1485    0.050459848    0.037016225      52.269277 
 1165000     1548    0.050459848    0.037009482      52.338348 
 1166000     1576    0.050459848    0.036986026      52.401901 
 1167000     1471    0.050459848    0.037267993      52.460485 
 1168000     1590    0.050459848    0.037011642      52.515304 
 1169000     1401    0.050459848    0.037238107      52.569991 
 1170000     1520    0.050459848      0.0373636      52.629717 
 1171000     1569    0.050459848    0.037426351      52.684297 
 1172000     1478    0.050459848     0.03745062      52.745687 
 1173000     1765    0.050459848    0.037290723      52.807108 
 1174000     1443    0.050459848    0.036915427      52.867992 
 1175000     1660    0.050459848    0.036934591      52.924754 
 1176000     1471    0.050459848    0.036912737      52.976085 
 1177000     1492    0.050459848    0.036922055      53.043601 
 1178000     1527    0.050459848    0.036894086      53.108598 
 1179000     1534    0.050459848    0.036964878      53.168661 
 1180000     1471    0.050459848    0.036862899      53.230219 
 1181000     1583    0.050459848    0.037052613      53.285744 
 1182000     1443    0.050459848    0.037053369       53.34452 
 1183000     1653    0.050459848    0.037120459      53.400164 
 1184000     1555    0.050459848     0.03718886      53.454229 
 1185000     1513    0.050459848     0.03717268      53.514032 
 1186000     1660    0.050459848    0.037152262      53.566497 
 1187000     1394    0.050459848    0.037220294      53.624933 
 1188000     1730    0.050459848    0.037045977      53.680125 
 1189000     1415    0.050459848    0.037125423       53.73494 
 1190000     1667    0.050459848    0.037097996       53.79378 
 1191000     1583    0.050459848    0.036967356       53.84764 
 1192000     1464    0.050459848     0.03693249      53.909897 
 1193000     1604    0.050459848    0.037328109      53.961976 
 1194000     1450    0.050459848    0.037224769      54.019595 
[...]
 1698000     1590    0.050459848    0.037077613      82.453125 
 1699000     1422    0.050459848    0.037164026      82.508239 
 1700000     1751    0.050459848    0.037113202      82.561468 
 1701000     1408    0.050459848     0.03718258      82.615228 
 1702000     1737    0.050459848    0.037202847      82.675098 
 1703000     1380    0.050459848    0.037239456       82.73098 
 1704000     1569    0.050459848    0.037262624      82.788959 
 1705000     1660    0.050459848    0.037239333      82.841779 
 1706000     1457    0.050459848    0.037313712      82.903284 
 1707000     1828    0.050459848    0.036973734      82.954674 
 1708000     1282    0.050459848    0.036985492      83.011275 
 1709000     1744    0.050459848    0.037072737      83.064093 
 1710000     1478    0.050459848    0.037074129      83.114763 
 1711000     1499    0.050459848    0.037071305      83.167442 
 1712000     1716    0.050459848    0.037254117      83.216338 
 1713000     1513    0.050459848    0.037439098      83.271756 
 1714000     1646    0.050459848    0.037135631      83.322878 
 1715000     1513    0.050459848    0.037212191      83.379853 
 1716000     1562    0.050459848     0.03735257      83.434782 
 1717000     1450    0.050459848    0.037414214      83.498496 
 1718000     1688    0.050459848    0.037182513      83.560467 
 1719000     1436    0.050459848      0.0372187       83.61335 
 1720000     1681    0.050459848    0.037060903      83.673263 
 1721000     1590    0.050459848    0.037402208      83.723519 
 1722000     1541    0.050459848     0.03746904       83.77841 
 1723000     1632    0.050459848      0.0372381      83.829838 
 1724000     1380    0.050459848    0.037127284      83.884869 
 1725000     1758    0.050459848       0.037213      83.940522 
 1726000     1436    0.050459848    0.037113026      83.989865 
 1727000     1548    0.050459848    0.037096885      84.042877 
 1728000     1534    0.050459848     0.03716089      84.093871 
 1729000     1583    0.050459848    0.037226057      84.149956 
 1730000     1646    0.050459848    0.037656947      84.205225 
 1731000     1464    0.050459848    0.037082119      84.257132 
 1732000     1786    0.050459848    0.037309576      84.312896 
 1733000     1429    0.050459848    0.037205531      84.368738 
 1734000     1576    0.050459848    0.037230433      84.429291 
 1735000     1569    0.050459848    0.037154626      84.493282 
 1736000     1520    0.050459848     0.03715385      84.549546 
 1737000     1667    0.050459848    0.037138805      84.606871 
 1738000     1380    0.050459848    0.037313222      84.660996 
 1739000     1709    0.050459848     0.03738228      84.720739 
 1740000     1555    0.050459848    0.037402529      84.772954 
 1741000     1450    0.050459848    0.037389828      84.830561 
 1742000     1737    0.050459848    0.037565089      84.888248 
 1743000     1373    0.050459848     0.03757381      84.947016 
 1744000     1716    0.050459848    0.037177995      85.012098 
 1745000     1562    0.050459848    0.037217251      85.063805 
 1746000     1408    0.050459848    0.037323866      85.124326 
 1747000     1744    0.050459848      0.0373877      85.177344 
 1748000     1366    0.050459848    0.037447453      85.232967 
 1749000     1674    0.050459848    0.037272019      85.287622 
 1750000     1506    0.050459848    0.037086358      85.334605 
 1751000     1506    0.050459848    0.037062853      85.389729 
 1752000     1555    0.050459848    0.037128335      85.439801 
 1753000     1408    0.050459848     0.03711585      85.490589 
 1754000     1611    0.050459848    0.037188901      85.546352 
 1755000     1597    0.050459848    0.037206734       85.59843 
 1756000     1471    0.050459848    0.037081685      85.653885 
 1757000     1562    0.050459848    0.036913038      85.704974 
 1758000     1464    0.050459848    0.037065712      85.755921 
 1759000     1506    0.050459848    0.037236882      85.810293 
 1760000     1737    0.050459848    0.037303261      85.863162 
 1761000     1359    0.050459848    0.037042137      85.916725 
 1762000     1737    0.050459848    0.037174151       85.97281 
 1763000     1485    0.050459848    0.037239075      86.025033 
 1764000     1569    0.050459848    0.037263131      86.083558 
 1765000     1639    0.050459848    0.037251907      86.134381 
 1766000     1359    0.050459848    0.037114849      86.188503 
 1767000     1590    0.050459848    0.037139739      86.241825 
 1768000     1541    0.050459848    0.037143576      86.296185 
 1769000     1618    0.050459848     0.03721231      86.349185 
 1770000     1611    0.050459848    0.037195658      86.403986 
 1771000     1562    0.050459848    0.036980624      86.459241 
 1772000     1513    0.050459848    0.037024635      86.511271 
 1773000     1646    0.050459848    0.037111259      86.563658 
 1774000     1429    0.050459848    0.037372879      86.619776 
 1775000     1667    0.050459848    0.037435957      86.676918 
 1776000     1569    0.050459848    0.037135557      86.730572 
 1777000     1604    0.050459848    0.037131563      86.786578 
 1778000     1527    0.050459848    0.037029343      86.836485 
 1779000     1450    0.050459848    0.037038723       86.88622 
 1780000     1604    0.050459848    0.037069237      86.932057 
 1781000     1443    0.050459848    0.037297325      86.982326 
 1782000     1604    0.050459848    0.037087921      87.035457 
 1783000     1611    0.050459848    0.037153605      87.086109 
 1784000     1576    0.050459848    0.037076951      87.140621 
 1785000     1590    0.050459848    0.037118539      87.191641 
 1786000     1450    0.050459848    0.037130222      87.243366 
 1787000     1506    0.050459848    0.037102329      87.296806 
 1788000     1632    0.050459848    0.036875232      87.350194 
 1789000     1387    0.050459848    0.036997133      87.401351 
 1790000     1709    0.050459848    0.037063967      87.452507 
 1791000     1387    0.050459848     0.03701604       87.50059 
 1792000     1478    0.050459848    0.037179177      87.555238 
 1793000     1758    0.050459848    0.037242935      87.606302 
 1794000     1324    0.050459848    0.037238723      87.658953 
 1795000     1786    0.050459848    0.037197548      87.713546 
 1796000     1380    0.050459848    0.036901759      87.758559 
 1797000     1366    0.050459848    0.037001649      87.814759 
 1798000     1709    0.050459848    0.036998657      87.864672 
 1799000     1352    0.050459848    0.037333258      87.914521 
 1800000     1723    0.050459848    0.037398979      87.971968 
 1801000     1520    0.050459848    0.037149765      88.023126 
 1802000     1562    0.050459848    0.037164236      88.081525 
 1803000     1422    0.050459848    0.036947867      88.135304 
 1804000     1541    0.050459848    0.037073111      88.187957 
 1805000     1667    0.050459848    0.037105811      88.241378 
 1806000     1527    0.050459848    0.037169913      88.296202 
 1807000     1618    0.050459848    0.037128772      88.349607 
 1808000     1527    0.050459848    0.037350094      88.403884 
 1809000     1653    0.050459848     0.03742984      88.459645 
 1810000     1443    0.050459848    0.037440828      88.510238 
 1811000     1541    0.050459848    0.036927165      88.562449 
 1812000     1513    0.050459848    0.036983726      88.611555 
 1813000     1527    0.050459848    0.036861851      88.663244 
 1814000     1583    0.050459848    0.036973549      88.713823 
 1815000     1478    0.050459848    0.037018879      88.763259 
 1816000     1639    0.050459848    0.037057535      88.815821 
 1817000     1492    0.050459848     0.03713187       88.86516 
 1818000     1520    0.050459848    0.036938071      88.914445 
 1819000     1499    0.050459848    0.037129633       88.96561 
 1820000     1534    0.050459848    0.037182099      89.018488 
 1821000     1583    0.050459848    0.037196426      89.069294 
 1822000     1520    0.050459848    0.037034531      89.124035 
 1823000     1569    0.050459848    0.037097069      89.172408 
 1824000     1450    0.050459848    0.037165149      89.223318 
 1825000     1555    0.050459848    0.037012245      89.276316 
 1826000     1513    0.050459848    0.036926993      89.326741 
 1827000     1569    0.050459848      0.0369044      89.380065 
 1828000     1506    0.050459848      0.0370547      89.430589 
 1829000     1506    0.050459848     0.03703584      89.483911 
 1830000     1611    0.050459848    0.037031464      89.539236 
 1831000     1569    0.050459848    0.037100162       89.59547 
 1832000     1583    0.050459848    0.037282301      89.653147 
 1833000     1464    0.050459848    0.037348249      89.706848 
 1834000     1646    0.050459848    0.037082042      89.760273 
 1835000     1478    0.050459848    0.037592745      89.813008 
 1836000     1555    0.050459848     0.03716997      89.866526 
 1837000     1485    0.050459848    0.036977245      89.916731 
 1838000     1527    0.050459848    0.037044948      89.966598 
 1839000     1590    0.050459848    0.036938681      90.015938 
 1840000     1534    0.050459848    0.037010027      90.066896 
 1841000     1667    0.050459848    0.036991955      90.117299 
 1842000     1555    0.050459848    0.037086901      90.168631 
 1843000     1583    0.050459848    0.037079478      90.218621 
 1844000     1597    0.050459848    0.037287548      90.274769 
 1845000     1429    0.050459848    0.037175913      90.329016 
 1846000     1548    0.050459848    0.037245045      90.385974 
 1847000     1583    0.050459848    0.037223021       90.43887 
 1848000     1478    0.050459848    0.037268691      90.495265 
 1849000     1688    0.050459848    0.037336796      90.548292 
 1850000     1534    0.050459848    0.037243072      90.599424 
 1851000     1597    0.050459848    0.037263055      90.653301 
 1852000     1583    0.050459848    0.037238897       90.70472 
 1853000     1464    0.050459848    0.036971943      90.756562 
 1854000     1590    0.050459848    0.037144567      90.809198 
 1855000     1625    0.050459848    0.037217909      90.863869 
 1856000     1457    0.050459848    0.037047372      90.918613 
 1857000     1548    0.050459848    0.037151478      90.972621 
 1858000     1541    0.050459848    0.037223383      91.026519 
 1859000     1527    0.050459848    0.037199287        91.0822 
 1860000     1590    0.050459848    0.037167737       91.13392 
 1861000     1569    0.050459848    0.037167076      91.186615 
 1862000     1492    0.050459848    0.037029471      91.234112 
 1863000     1527    0.050459848    0.037083288      91.282963 
 1864000     1646    0.050459848    0.037006615      91.331327 
 1865000     1422    0.050459848    0.037054548      91.381317 
 1866000     1583    0.050459848    0.037033289      91.430698 
 1867000     1443    0.050459848     0.03698882      91.482149 
 1868000     1625    0.050459848    0.037281707      91.532555 
 1869000     1625    0.050459848    0.037356401      91.585212 
 1870000     1611    0.050459848    0.036999368        91.6376 
 1871000     1604    0.050459848     0.03716195      91.689842 
 1872000     1513    0.050459848      0.0370188      91.741565 
 1873000     1562    0.050459848    0.037206853      91.793989 
 1874000     1499    0.050459848    0.037276434      91.847542 
 1875000     1499    0.050459848     0.03725864      91.907222 
 1876000     1667    0.050459848    0.037187619       91.96235 
 1877000     1443    0.050459848    0.037374382      92.023616 
 1878000     1807    0.050459848     0.03747919      92.077625 
 1879000     1359    0.050459848    0.037254187      92.128522 
 1880000     1562    0.050459848    0.037112529      92.184722 
 1881000     1492    0.050459848    0.037195855       92.23508 
 1882000     1457    0.050459848    0.036982861      92.293619 
 1883000     1639    0.050459848    0.037340376      92.346334 
 1884000     1590    0.050459848    0.037119973      92.404161 
 1885000     1618    0.050459848    0.037112764      92.459594 
 1886000     1555    0.050459848    0.037088081      92.511736 
 1887000     1513    0.050459848    0.037145227      92.568226 
 1888000     1604    0.050459848    0.036890466      92.620161 
 1889000     1541    0.050459848    0.037084138      92.672052 
 1890000     1499    0.050459848    0.037107237      92.725648 
 1891000     1590    0.050459848    0.037168549      92.779645 
 1892000     1450    0.050459848    0.037140886      92.831806 
 1893000     1597    0.050459848    0.037205593      92.885972 
 1894000     1562    0.050459848    0.036996555      92.936888 
 1895000     1548    0.050459848    0.037067821      92.987867 
 1896000     1632    0.050459848    0.036996509       93.03838 
 1897000     1534    0.050459848    0.037159504      93.087818 
 1898000     1499    0.050459848    0.037037476      93.142786 
 1899000     1590    0.050459848    0.037397345      93.195073 
 1900000     1422    0.050459848       0.037248      93.250578 
 1901000     1709    0.050459848    0.037273794       93.30791 
 1902000     1492    0.050459848    0.037336532         93.361 
 1903000     1485    0.050459848    0.037325138      93.414745 
 1904000     1653    0.050459848    0.036971422      93.467828 
 1905000     1436    0.050459848    0.037014099      93.516383 
 1906000     1464    0.050459848    0.036844575      93.568708 
 1907000     1653    0.050459848    0.036912038      93.618857 
 1908000     1387    0.050459848    0.037213367      93.671236 
 1909000     1800    0.050459848    0.037277759      93.726294 
 1910000     1443    0.050459848    0.037302541       93.77478 
 1911000     1422    0.050459848     0.03701074      93.830566 
 1912000     1800    0.050459848    0.037030225      93.879525 
 1913000     1177    0.050459848    0.037108921      93.928203 
 1914000     1772    0.050459848    0.037000018      93.984517 
 1915000     1457    0.050459848    0.037263578      94.033988 
 1916000     1492    0.050459848    0.037012249      94.090024 
 1917000     1723    0.050459848    0.037073589      94.138631 
 1918000     1415    0.050459848    0.037071956      94.190943 
 1919000     1674    0.050459848    0.037066244      94.242298 
 1920000     1506    0.050459848    0.037143075      94.320834 
 1921000     1562    0.050459848    0.037157828      94.376279 
 1922000     1639    0.050459848    0.037030859      94.430614 
 1923000     1520    0.050459848    0.037016849      94.484907 
 1924000     1604    0.050459848     0.03696945       94.53662 
 1925000     1569    0.050459848    0.037232794      94.589593 
 1926000     1555    0.050459848    0.037310739      94.645462 
 1927000     1478    0.050459848    0.037283952      94.700276 
 1928000     1604    0.050459848    0.037351353       94.75202 
 1929000     1492    0.050459848    0.037146846      94.804327 
 1930000     1646    0.050459848    0.037256025      94.858723 
 1931000     1548    0.050459848    0.037198961      94.910756 
 1932000     1499    0.050459848    0.037182492      94.963051 
 1933000     1576    0.050459848    0.037247882       95.01554 
 1934000     1534    0.050459848    0.037203741      95.069818 
 1935000     1457    0.050459848    0.037166869      95.124145 
 1936000     1590    0.050459848    0.037173865       95.18249 
 1937000     1527    0.050459848     0.03720825      95.238645 
 1938000     1569    0.050459848    0.037042776      95.297274 
 1939000     1618    0.050459848     0.03716902      95.349745 
 1940000     1436    0.050459848    0.037262239      95.404478 
 1941000     1695    0.050459848     0.03733417      95.457821 
 1942000     1443    0.050459848    0.036923476      95.507515 
 1943000     1625    0.050459848    0.037134712       95.55709 
 1944000     1415    0.050459848    0.037015644      95.608217 
 1945000     1555    0.050459848    0.036933621      95.672104 
 1946000     1576    0.050459848    0.037011074      95.721599 
 1947000     1422    0.050459848    0.036979212      95.772878 
 1948000     1562    0.050459848    0.037157693        95.8231 
 1949000     1527    0.050459848    0.037225882      95.879193 
 1950000     1457    0.050459848     0.03720968      95.932943 
 1951000     1541    0.050459848    0.037024767       95.98936 
 1952000     1513    0.050459848    0.037001157      96.042877 
 1953000     1604    0.050459848    0.036952452      96.096466 
 1954000     1660    0.050459848    0.037000065      96.148242 
 1955000     1464    0.050459848    0.037059311      96.198737 
 1956000     1555    0.050459848    0.037127682      96.250316 
 1957000     1478    0.050459848    0.037039381      96.301497 
 1958000     1513    0.050459848    0.037154814      96.352593 
 1959000     1688    0.050459848    0.037220526      96.404962 
 1960000     1443    0.050459848    0.036865721      96.462576 
 1961000     1632    0.050459848      0.0374129      96.521624 
 1962000     1541    0.050459848    0.037018213      96.578409 
 1963000     1618    0.050459848    0.036942508      96.633131 
 1964000     1534    0.050459848    0.037019757      96.683686 
 1965000     1478    0.050459848    0.037051058      96.735904 
 1966000     1611    0.050459848    0.037167353      96.787862 
 1967000     1471    0.050459848    0.037084413      96.839359 
 1968000     1604    0.050459848    0.037141574      96.890916 
 1969000     1478    0.050459848    0.037069169      96.940348 
 1970000     1618    0.050459848    0.037133404      97.001921 
 1971000     1499    0.050459848    0.037112979      97.053663 
 1972000     1576    0.050459848    0.036964971      97.105751 
 1973000     1464    0.050459848     0.03709877      97.156275 
 1974000     1583    0.050459848    0.037165066      97.212367 
 1975000     1499    0.050459848    0.036896049       97.26614 
 1976000     1632    0.050459848    0.036871801      97.322165 
 1977000     1702    0.050459848    0.037026564      97.377696 
 1978000     1359    0.050459848    0.036971103      97.441973 
 1979000     1674    0.050459848     0.03703772      97.503633 
 1980000     1373    0.050459848    0.036966785      97.560205 
 1981000     1618    0.050459848    0.037151951      97.619718 
 1982000     1534    0.050459848    0.037220557      97.674991 
 1983000     1471    0.050459848    0.037203955      97.737303 
 1984000     1681    0.050459848    0.037237765      97.795592 
 1985000     1471    0.050459848    0.037247645      97.855937 
 1986000     1723    0.050459848    0.037006728      97.912389 
 1987000     1492    0.050459848    0.037073502      97.969984 
 1988000     1597    0.050459848    0.037215863      98.031904 
 1989000     1555    0.050459848     0.03724175      98.092665 
 1990000     1611    0.050459848    0.037304344      98.147067 
 1991000     1352    0.050459848    0.037085666      98.200162 
 1992000     1737    0.050459848    0.037109777      98.252305 
 1993000     1443    0.050459848    0.037047865      98.303157 
 1994000     1590    0.050459848    0.037126354      98.357752 
 1995000     1639    0.050459848    0.037303771         98.409 
 1996000     1345    0.050459848    0.037373557      98.463488 
 1997000     1758    0.050459848    0.037030883      98.516649 
 1998000     1275    0.050459848    0.037102814      98.568153 
 1999000     1772    0.050459848    0.037114377      98.624549 
 2000000     1457    0.050459848    0.036887192      98.678787 
Loop time of 98.6788 on 8 procs for 2000000 steps with 1471 atoms, finish time Tue Feb 17 00:39:15 2026


Pair  time (%) = 19.0785 (19.3339)
Neigh time (%) = 12.3758 (12.5415)
Comm  time (%) = 17.0995 (17.3284)
Outpt time (%) = 12.3996 (12.5656)
Other time (%) = 37.7255 (38.2306)

Nlocal:    183.875 ave 241 max 137 min
Histogram: 3 0 0 0 1 0 1 2 0 1
Nghost:    0 ave 0 max 0 min
Histogram: 8 0 0 0 0 0 0 0 0 0
Neighs:    558.875 ave 1147 max 205 min
Histogram: 3 0 0 2 0 0 1 1 0 1

Total # of neighbors = 4471
Ave neighs/atom = 3.03943
Neighbor list builds = 197334
Dangerous builds = 19909

